<VTKFile type="PolyData">
<PolyData>
<Piece NumberOfPoints="10" NumberOfVerts="10" NumberOfLines="0" NumberOfStrips="0" NumberOfPolys="0">
<PointData>
<DataArray type="Float64" Name="Pressure" format="ascii">
 0.000000 1.000000 2.000000 3.000000 4.000000 5.000000 6.000000 7.000000 8.000000 9.000000
</DataArray>
<DataArray type="Float64" Name="Velocity" NumberOfComponents="3" format="ascii">
 0.000000 0.000000 0.000000 1.000000 -1.000000 0.000000 2.000000 -2.000000 0.000000 3.000000 -3.000000 0.000000 4.000000 -4.000000 0.000000 5.000000 -5.000000 0.000000 6.000000 -6.000000 0.000000 7.000000 -7.000000 0.000000 8.000000 -8.000000 0.000000 9.000000 -9.000000 0.000000
</DataArray>
</PointData>
<Points>
<DataArray type="Float64" Name="Points" NumberOfComponents="3" format="ascii">
 0.000000 0.000000 0.000000 1.000000 1.000000 0.000000 2.000000 2.000000 0.000000 3.000000 3.000000 0.000000 4.000000 4.000000 0.000000 5.000000 5.000000 0.000000 6.000000 6.000000 0.000000 7.000000 7.000000 0.000000 8.000000 8.000000 0.000000 9.000000 9.000000 0.000000
</DataArray>
</Points>
<Verts>
<DataArray type="Int32" Name="connectivity" format="ascii">
 0 1 2 3 4 5 6 7 8 9
</DataArray>
<DataArray type="Int32" Name="offsets" format="ascii">
 1 2 3 4 5 6 7 8 9 10
</DataArray>
</Verts>
</Piece>
</PolyData>
</VTKFile>
